LAMMPS Description

64 atoms
63 bonds
2 atom types
1 bond types

0.0 71.11 xlo xhi
0.0 10.00 ylo yhi
-5.0 5.0 zlo zhi

Masses

1 1.0
2 1.0

Atoms # full

1 1 1 0.0 0.0 0.0 0.0
2 1 1 0.0 0.97 0.0 0.0
3 1 1 0.0 1.94 0.0 0.0
4 1 1 0.0 2.91 0.0 0.0
5 1 1 0.0 3.88 0.0 0.0
6 1 1 0.0 4.85 0.0 0.0
7 1 1 0.0 5.82 0.0 0.0
8 1 1 0.0 6.79 0.0 0.0
9 1 1 0.0 7.76 0.0 0.0
10 1 2 0.0 8.73 0.0 0.0
11 1 2 0.0 9.7 0.0 0.0
12 1 2 0.0 10.67 0.0 0.0
13 1 2 0.0 11.64 0.0 0.0
14 1 2 0.0 12.61 0.0 0.0
15 1 2 0.0 13.58 0.0 0.0
16 1 2 0.0 14.549999999999999 0.0 0.0
17 1 2 0.0 15.52 0.0 0.0
18 1 2 0.0 16.49 0.0 0.0
19 1 2 0.0 17.46 0.0 0.0
20 1 2 0.0 18.43 0.0 0.0
21 1 2 0.0 19.4 0.0 0.0
22 1 2 0.0 20.37 0.0 0.0
23 1 2 0.0 21.34 0.0 0.0
24 1 2 0.0 22.31 0.0 0.0
25 1 2 0.0 23.28 0.0 0.0
26 1 2 0.0 24.25 0.0 0.0
27 1 2 0.0 25.22 0.0 0.0
28 1 1 0.0 26.189999999999998 0.0 0.0
29 1 1 0.0 27.16 0.0 0.0
30 1 1 0.0 28.13 0.0 0.0
31 1 1 0.0 29.099999999999998 0.0 0.0
32 1 1 0.0 30.07 0.0 0.0
33 1 1 0.0 31.04 0.0 0.0
34 1 1 0.0 32.01 0.0 0.0
35 1 1 0.0 32.98 0.0 0.0
36 1 1 0.0 33.949999999999996 0.0 0.0
37 1 2 0.0 34.92 0.0 0.0
38 1 2 0.0 35.89 0.0 0.0
39 1 2 0.0 36.86 0.0 0.0
40 1 2 0.0 37.83 0.0 0.0
41 1 2 0.0 38.8 0.0 0.0
42 1 2 0.0 39.769999999999996 0.0 0.0
43 1 2 0.0 40.74 0.0 0.0
44 1 2 0.0 41.71 0.0 0.0
45 1 2 0.0 42.68 0.0 0.0
46 1 2 0.0 43.65 0.0 0.0
47 1 2 0.0 44.62 0.0 0.0
48 1 2 0.0 45.589999999999996 0.0 0.0
49 1 2 0.0 46.56 0.0 0.0
50 1 2 0.0 47.53 0.0 0.0
51 1 2 0.0 48.5 0.0 0.0
52 1 2 0.0 49.47 0.0 0.0
53 1 2 0.0 50.44 0.0 0.0
54 1 2 0.0 51.41 0.0 0.0
55 1 1 0.0 52.379999999999995 0.0 0.0
56 1 1 0.0 53.35 0.0 0.0
57 1 1 0.0 54.32 0.0 0.0
58 1 1 0.0 55.29 0.0 0.0
59 1 1 0.0 56.26 0.0 0.0
60 1 1 0.0 57.23 0.0 0.0
61 1 1 0.0 58.199999999999996 0.0 0.0
62 1 1 0.0 59.17 0.0 0.0
63 1 1 0.0 60.14 0.0 0.0
64 1 1 0.0 61.11 0.0 0.0

Bonds

1 1 1 2
2 1 2 3
3 1 3 4
4 1 4 5
5 1 5 6
6 1 6 7
7 1 7 8
8 1 8 9
9 1 9 10
10 1 10 11
11 1 11 12
12 1 12 13
13 1 13 14
14 1 14 15
15 1 15 16
16 1 16 17
17 1 17 18
18 1 18 19
19 1 19 20
20 1 20 21
21 1 21 22
22 1 22 23
23 1 23 24
24 1 24 25
25 1 25 26
26 1 26 27
27 1 27 28
28 1 28 29
29 1 29 30
30 1 30 31
31 1 31 32
32 1 32 33
33 1 33 34
34 1 34 35
35 1 35 36
36 1 36 37
37 1 37 38
38 1 38 39
39 1 39 40
40 1 40 41
41 1 41 42
42 1 42 43
43 1 43 44
44 1 44 45
45 1 45 46
46 1 46 47
47 1 47 48
48 1 48 49
49 1 49 50
50 1 50 51
51 1 51 52
52 1 52 53
53 1 53 54
54 1 54 55
55 1 55 56
56 1 56 57
57 1 57 58
58 1 58 59
59 1 59 60
60 1 60 61
61 1 61 62
62 1 62 63
63 1 63 64
