LAMMPS Description

40 atoms
39 bonds
2 atom types
1 bond types

0.0 24.55 xlo xhi
0.0 17.76 ylo yhi
-5.0 5.0 zlo zhi

Masses

1 1.0
2 1.0

Atoms # full

1 1 1 0.0 0.0 0.0 0.0
2 1 1 0.0 0.97 0.0 0.0
3 1 1 0.0 1.94 0.0 0.0
4 1 1 0.0 2.91 0.0 0.0
5 1 2 0.0 3.88 0.0 0.0
6 1 2 0.0 4.85 0.0 0.0
7 1 2 0.0 5.82 0.0 0.0
8 1 2 0.0 6.79 0.0 0.0
9 1 2 0.0 7.76 0.0 0.0
10 1 2 0.0 8.73 0.0 0.0
11 1 2 0.0 9.7 0.0 0.0
12 1 2 0.0 10.67 0.0 0.0
13 1 1 0.0 11.64 0.0 0.0
14 1 1 0.0 12.61 0.0 0.0
15 1 1 0.0 13.58 0.0 0.0
16 1 1 0.0 14.549999999999999 0.0 0.0
17 1 1 0.0 0.0 -0.97 0.0
18 1 1 0.0 0.0 -1.94 0.0
19 1 1 0.0 0.0 -2.91 0.0
20 1 1 0.0 0.0 -3.88 0.0
21 1 1 0.0 0.0 -4.85 0.0
22 1 1 0.0 0.0 -5.82 0.0
23 1 1 0.0 0.0 -6.79 0.0
24 1 1 0.0 0.0 -7.76 0.0
25 1 2 0.0 5.82 0.97 0.0
26 1 2 0.0 5.82 1.94 0.0
27 1 2 0.0 5.82 2.91 0.0
28 1 2 0.0 5.82 3.88 0.0
29 1 2 0.0 5.82 4.85 0.0
30 1 2 0.0 5.82 5.82 0.0
31 1 2 0.0 5.82 6.79 0.0
32 1 2 0.0 5.82 7.76 0.0
33 1 1 0.0 11.64 -0.97 0.0
34 1 1 0.0 11.64 -1.94 0.0
35 1 1 0.0 11.64 -2.91 0.0
36 1 1 0.0 11.64 -3.88 0.0
37 1 1 0.0 11.64 -4.85 0.0
38 1 1 0.0 11.64 -5.82 0.0
39 1 1 0.0 11.64 -6.79 0.0
40 1 1 0.0 11.64 -7.76 0.0

Bonds

1 1 1 2
2 1 2 3
3 1 3 4
4 1 4 5
5 1 5 6
6 1 6 7
7 1 7 8
8 1 8 9
9 1 9 10
10 1 10 11
11 1 11 12
12 1 12 13
13 1 13 14
14 1 14 15
15 1 15 16
16 1 1 17
17 1 17 18
18 1 18 19
19 1 19 20
20 1 20 21
21 1 21 22
22 1 22 23
23 1 23 24
24 1 7 25
25 1 25 26
26 1 26 27
27 1 27 28
28 1 28 29
29 1 29 30
30 1 30 31
31 1 31 32
32 1 13 33
33 1 33 34
34 1 34 35
35 1 35 36
36 1 36 37
37 1 37 38
38 1 38 39
39 1 39 40
