CHARMM-GUI lammps input

               452  atoms
               451  bonds
               800  angles
              1046  dihedrals
                50  impropers

                11  atom types
                12  bond types
                22  angle types
                27  dihedral types
                 3  improper types

    -100.0000      100.0000 xlo xhi
    -100.0000      100.0000 ylo yhi
    -100.0000      100.0000 zlo zhi

Masses

       1         1.008  # HGA1
       2         1.008  # HGA2
       3         1.008  # HGA3
       4         1.008  # HGP1
       5        12.011  # CG2O2
       6        12.011  # CG311
       7        12.011  # CG321
       8        12.011  # CG331
       9        15.999  # OG2D1
      10        15.999  # OG302
      11        15.999  # OG311

Pair Coeffs

       1 0.04500000000000 2.38760856461611 0.04500000000000 2.38760856461611 # HGA1
       2 0.03500000000000 2.38760856461611 0.03500000000000 2.38760856461611 # HGA2
       3 0.02400000000000 2.38760856461611 0.02400000000000 2.38760856461611 # HGA3
       4 0.04600000000000 0.40001352444501 0.04600000000000 0.40001352444501 # HGP1
       5 0.09800000000000 3.02905564167715 0.09800000000000 3.02905564167715 # CG2O2
       6 0.03200000000000 3.56359487256136 0.01000000000000 3.38541512893329 # CG311
       7 0.05600000000000 3.58141284692416 0.01000000000000 3.38541512893329 # CG321
       8 0.07800000000000 3.65268474437539 0.01000000000000 3.38541512893329 # CG331
       9 0.12000000000000 3.02905564167715 0.12000000000000 2.49451641079295 # OG2D1
      10 0.10000000000000 2.93996576986312 0.10000000000000 2.93996576986312 # OG302
      11 0.19210000000000 3.14487247503540 0.19210000000000 3.14487247503540 # OG311

Atoms

           1        1      4   0.430   -91.0029612071    -0.3800749890    -0.0863138807 # P1-1-LACTR-HO1-HGP1
           2        1     11  -0.630   -90.2440327806     0.1846096008    -0.2478037139 # P1-1-LACTR-O1-OG311
           3        1      5   0.810   -88.9435603380    -0.4142596009     0.1006483911 # P1-1-LACTR-C1-CG2O2
           4        1      9  -0.590   -88.8535625147    -1.5589337827     0.5649150676 # P1-1-LACTR-O2-OG2D1
           5        1      6   0.140   -87.6321275206     0.5783306134    -0.1971109475 # P1-1-LACTR-C2-CG311
           6        1      1   0.090   -87.7094062000     0.9246151935    -1.2991396846 # P1-1-LACTR-H21-HGA1
           7        1      8  -0.270   -87.6460859042     1.8902545126     0.8326659086 # P1-1-LACTR-C3-CG331
           8        1      3   0.090   -86.7382755048     2.5477091603     0.6129813758 # P1-1-LACTR-H31-HGA3
           9        1      3   0.090   -88.6024536967     2.4891491578     0.6694888628 # P1-1-LACTR-H32-HGA3
          10        1      3   0.090   -87.5973337139     1.5206014936     1.9112684405 # P1-1-LACTR-H33-HGA3
          11        2     10  -0.500   -86.3981730272    -0.2551323206    -0.0271773956 # P1-2-LACTR-O1-OG302
          12        2      5   0.860   -85.1713491375     0.2339309433    -0.5331350822 # P1-2-LACTR-C1-CG2O2
          13        2      9  -0.590   -85.0376167470     1.2836941230    -1.1807907844 # P1-2-LACTR-O2-OG2D1
          14        2      6   0.140   -83.9395525708    -0.7750137235    -0.1017173078 # P1-2-LACTR-C2-CG311
          15        2      1   0.090   -84.0767449771    -1.0373434327     1.0186868909 # P1-2-LACTR-H21-HGA1
          16        2      8  -0.270   -83.9483966768    -2.1564536201    -1.0345836427 # P1-2-LACTR-C3-CG331
          17        2      3   0.090   -83.0701368604    -2.8195180245    -0.7279222260 # P1-2-LACTR-H31-HGA3
          18        2      3   0.090   -84.9283887482    -2.7160059800    -0.8725695767 # P1-2-LACTR-H32-HGA3
          19        2      3   0.090   -83.8419439326    -1.8658845705    -2.1331030788 # P1-2-LACTR-H33-HGA3
          20        3     10  -0.500   -82.6868122556     0.0196910758    -0.2779916332 # P1-3-LACTR-O1-OG302
          21        3      5   0.860   -81.4966518945    -0.4172555816     0.3323896092 # P1-3-LACTR-C1-CG2O2
          22        3      9  -0.590   -81.3853465722    -1.4166408852     1.0547503894 # P1-3-LACTR-O2-OG2D1
          23        3      6   0.140   -80.2664310605     0.5937739648    -0.0949924237 # P1-3-LACTR-C2-CG311
          24        3      1   0.090   -80.4048176684     0.8732169050    -1.2109159328 # P1-3-LACTR-H21-HGA1
          25        3      8  -0.270   -80.2662825701     1.9597178902     0.8607643613 # P1-3-LACTR-C3-CG331
          26        3      3   0.090   -79.3949046261     2.6312661049     0.5540608031 # P1-3-LACTR-H31-HGA3
          27        3      3   0.090   -81.2504405817     2.5181126428     0.7209252081 # P1-3-LACTR-H32-HGA3
          28        3      3   0.090   -80.1446011040     1.6509604388     1.9527311977 # P1-3-LACTR-H33-HGA3
          29        4     10  -0.500   -79.0276125593    -0.2182289903     0.0670627302 # P1-4-LACTS-O1-OG302
          30        4      5   0.860   -77.8065538276     0.2804274769    -0.4139925485 # P1-4-LACTS-C1-CG2O2
          31        4      9  -0.590   -77.6657874415     1.3073693840    -1.0897545615 # P1-4-LACTS-O2-OG2D1
          32        4      6   0.140   -76.5864648905    -0.7012270667     0.1013244614 # P1-4-LACTS-C2-CG311
          33        4      1   0.090   -76.6510374400    -1.6959792506    -0.4848327248 # P1-4-LACTS-H21-HGA1
          34        4      8  -0.270   -76.6891383784    -0.9685018474     1.7471752112 # P1-4-LACTS-C3-CG331
          35        4      3   0.090   -75.8161741524    -1.6253024588     2.0775885317 # P1-4-LACTS-H31-HGA3
          36        4      3   0.090   -76.6407083201     0.0339443065     2.2908967382 # P1-4-LACTS-H32-HGA3
          37        4      3   0.090   -77.6742251981    -1.4911597943     1.9849006690 # P1-4-LACTS-H33-HGA3
          38        5     10  -0.500   -75.3460371928     0.0331425339    -0.2722616949 # P1-5-LACTR-O1-OG302
          39        5      5   0.860   -74.1025850525    -0.5858232832    -0.1001452699 # P1-5-LACTR-C1-CG2O2
          40        5      9  -0.590   -73.9229305724    -1.7717497089     0.2063963050 # P1-5-LACTR-O2-OG2D1
          41        5      6   0.140   -72.9173678182     0.5335316812    -0.3371661825 # P1-5-LACTR-C2-CG311
          42        5      1   0.090   -72.9762105749     0.8966309389    -1.4339917757 # P1-5-LACTR-H21-HGA1
          43        5      8  -0.270   -73.0760176879     1.8112851980     0.7253182921 # P1-5-LACTR-C3-CG331
          44        5      3   0.090   -72.2204739975     2.5482167915     0.5566452091 # P1-5-LACTR-H31-HGA3
          45        5      3   0.090   -74.0737858207     2.3331464945     0.5443383933 # P1-5-LACTR-H32-HGA3
          46        5      3   0.090   -73.0344298063     1.4155204396     1.7950979754 # P1-5-LACTR-H33-HGA3
          47        6     10  -0.500   -71.6670760585    -0.2377607370    -0.1169794203 # P1-6-LACTS-O1-OG302
          48        6      5   0.860   -70.4328486397     0.3217610373    -0.4500882889 # P1-6-LACTS-C1-CG2O2
          49        6      9  -0.590   -70.2585520752     1.4039381835    -1.0243439119 # P1-6-LACTS-O2-OG2D1
          50        6      6   0.140   -69.2461152372    -0.6897187134     0.0860432611 # P1-6-LACTS-C2-CG311
          51        6      1   0.090   -69.3108273721    -1.6778887963    -0.5103594385 # P1-6-LACTS-H21-HGA1
          52        6      8  -0.270   -69.4069146787    -0.9643426201     1.7260761929 # P1-6-LACTS-C3-CG331
          53        6      3   0.090   -68.5575420511    -1.6376795322     2.0820524540 # P1-6-LACTS-H31-HGA3
          54        6      3   0.090   -69.3612680364     0.0343852474     2.2771680160 # P1-6-LACTS-H32-HGA3
          55        6      3   0.090   -70.4088433365    -1.4706497936     1.9285181439 # P1-6-LACTS-H33-HGA3
          56        7     10  -0.500   -68.0001131873     0.0402025395    -0.2536833763 # P1-7-LACTR-O1-OG302
          57        7      5   0.860   -66.7539474053    -0.5231005772     0.0213722079 # P1-7-LACTR-C1-CG2O2
          58        7      9  -0.590   -66.5424464638    -1.6995411106     0.3400837257 # P1-7-LACTR-O2-OG2D1
          59        7      6   0.140   -65.6195876112     0.6635090665    -0.1151215509 # P1-7-LACTR-C2-CG311
          60        7      1   0.090   -65.5791951430     0.9722485034    -1.2312109015 # P1-7-LACTR-H21-HGA1
          61        7      8  -0.270   -65.9785930988     1.9748439283     0.8487767318 # P1-7-LACTR-C3-CG331
          62        7      3   0.090   -65.1565491754     2.7581456621     0.7287207217 # P1-7-LACTR-H31-HGA3
          63        7      3   0.090   -66.9811329308     2.4160064092     0.5304116138 # P1-7-LACTR-H32-HGA3
          64        7      3   0.090   -66.0314694125     1.6346113906     1.9366116796 # P1-7-LACTR-H33-HGA3
          65        8     10  -0.500   -64.3525021659    -0.0011734093     0.2866390976 # P1-8-LACTR-O1-OG302
          66        8      5   0.860   -63.1721351543     0.3398312160    -0.3790374474 # P1-8-LACTR-C1-CG2O2
          67        8      9  -0.590   -63.0336884186     1.2768997336    -1.1758119264 # P1-8-LACTR-O2-OG2D1
          68        8      6   0.140   -61.9992238527    -0.7289802364     0.0600685939 # P1-8-LACTR-C2-CG311
          69        8      1   0.090   -62.1501058224    -1.0128313086     1.1716041591 # P1-8-LACTR-H21-HGA1
          70        8      8  -0.270   -62.0646057143    -2.0745391613    -0.9216817606 # P1-8-LACTR-C3-CG331
          71        8      3   0.090   -61.2233600788    -2.7912262277    -0.6401248716 # P1-8-LACTR-H31-HGA3
          72        8      3   0.090   -63.0735668025    -2.5903869530    -0.7839173077 # P1-8-LACTR-H32-HGA3
          73        8      3   0.090   -61.9456841870    -1.7475501733    -2.0090872755 # P1-8-LACTR-H33-HGA3
          74        9     10  -0.500   -60.7625840273     0.0700237215    -0.1054798374 # P1-9-LACTS-O1-OG302
          75        9      5   0.860   -59.5070383566    -0.4642394757     0.1714060848 # P1-9-LACTS-C1-CG2O2
          76        9      9  -0.590   -59.2809587103    -1.5221505940     0.7700637310 # P1-9-LACTS-O2-OG2D1
          77        9      6   0.140   -58.3769674950     0.5458150045    -0.4851472281 # P1-9-LACTS-C2-CG311
          78        9      1   0.090   -58.3728620424     1.5130206467     0.1520659624 # P1-9-LACTS-H21-HGA1
          79        9      8  -0.270   -58.7302002175     0.8895852591    -2.0779060766 # P1-9-LACTS-C3-CG331
          80        9      3   0.090   -57.9130538827     1.5608432903    -2.5053805146 # P1-9-LACTS-H31-HGA3
          81        9      3   0.090   -58.7822440288    -0.0853134796    -2.6683914996 # P1-9-LACTS-H32-HGA3
          82        9      3   0.090   -59.7367035320     1.4261457964    -2.1314466420 # P1-9-LACTS-H33-HGA3
          83       10     10  -0.500   -57.0932478043    -0.1861503919    -0.3269721978 # P1-10-LACTS-O1-OG302
          84       10      5   0.860   -55.9561935387     0.5143637287     0.1019814426 # P1-10-LACTS-C1-CG2O2
          85       10      9  -0.590   -55.8232640923     1.7436947839     0.1023277046 # P1-10-LACTS-O2-OG2D1
          86       10      6   0.140   -54.8459626501    -0.5787772891     0.6323871246 # P1-10-LACTS-C2-CG311
          87       10      1   0.090   -54.9034921710    -1.4944872042    -0.0777106627 # P1-10-LACTS-H21-HGA1
          88       10      8  -0.270   -55.1508868133    -1.0356289642     2.2021792722 # P1-10-LACTS-C3-CG331
          89       10      3   0.090   -54.3404782067    -1.7671778526     2.5370042935 # P1-10-LACTS-H31-HGA3
          90       10      3   0.090   -55.1371297815    -0.1104673650     2.8695881980 # P1-10-LACTS-H32-HGA3
          91       10      3   0.090   -56.1730919550    -1.5396768306     2.2548757006 # P1-10-LACTS-H33-HGA3
          92       11     10  -0.500   -53.5381796417     0.1124945283     0.4754642219 # P1-11-LACTS-O1-OG302
          93       11      5   0.860   -52.4887834518    -0.5653739175    -0.1609579279 # P1-11-LACTS-C1-CG2O2
          94       11      9  -0.590   -52.4501495007    -1.7785945390    -0.3996649535 # P1-11-LACTS-O2-OG2D1
          95       11      6   0.140   -51.3131296818     0.5205235723    -0.5419262214 # P1-11-LACTS-C2-CG311
          96       11      1   0.090   -51.4488720030     1.4623907175     0.1188095593 # P1-11-LACTS-H21-HGA1
          97       11      8  -0.270   -51.3766457537     0.9080947600    -2.1594180049 # P1-11-LACTS-C3-CG331
          98       11      3   0.090   -50.5253071284     1.6263161240    -2.4076135123 # P1-11-LACTS-H31-HGA3
          99       11      3   0.090   -51.2693344238    -0.0465848479    -2.7757666660 # P1-11-LACTS-H32-HGA3
         100       11      3   0.090   -52.3795595471     1.4036662226    -2.3858350403 # P1-11-LACTS-H33-HGA3
         101       12     10  -0.500   -50.0735495103    -0.1981430261    -0.1586330775 # P1-12-LACTR-O1-OG302
         102       12      5   0.860   -48.8758730504     0.4910885825     0.0299166021 # P1-12-LACTR-C1-CG2O2
         103       12      9  -0.590   -48.7242332872     1.7160238333    -0.0438720818 # P1-12-LACTR-O2-OG2D1
         104       12      6   0.140   -47.6858214606    -0.6162954918     0.3259603228 # P1-12-LACTR-C2-CG311
         105       12      1   0.090   -47.7805027132    -0.9733852611     1.4202714434 # P1-12-LACTR-H21-HGA1
         106       12      8  -0.270   -47.8078433665    -1.8986735073    -0.7410611162 # P1-12-LACTR-C3-CG331
         107       12      3   0.090   -46.9557306909    -2.6327779512    -0.5571737058 # P1-12-LACTR-H31-HGA3
         108       12      3   0.090   -48.8078273265    -2.4254952781    -0.5838714720 # P1-12-LACTR-H32-HGA3
         109       12      3   0.090   -47.7488214873    -1.4991633284    -1.8090365531 # P1-12-LACTR-H33-HGA3
         110       13     10  -0.500   -46.4390963843     0.1682638365     0.1403122677 # P1-13-LACTS-O1-OG302
         111       13      5   0.860   -45.1909354338    -0.4523973161     0.2249623391 # P1-13-LACTS-C1-CG2O2
         112       13      9  -0.590   -44.9651786453    -1.5657951825     0.7135311904 # P1-13-LACTS-O2-OG2D1
         113       13      6   0.140   -44.0798552483     0.5383916755    -0.4827547590 # P1-13-LACTS-C2-CG311
         114       13      1   0.090   -44.0276855660     1.5022770044     0.1582489259 # P1-13-LACTS-H21-HGA1
         115       13      8  -0.270   -44.4917642480     0.8990156687    -2.0567028001 # P1-13-LACTS-C3-CG331
         116       13      3   0.090   -43.6887449909     1.5770664209    -2.5029787826 # P1-13-LACTS-H31-HGA3
         117       13      3   0.090   -44.5572081374    -0.0688850253    -2.6572300530 # P1-13-LACTS-H32-HGA3
         118       13      3   0.090   -45.4993111304     1.4339034911    -2.0712641240 # P1-13-LACTS-H33-HGA3
         119       14     10  -0.500   -42.8016371345    -0.2171430378    -0.3907671119 # P1-14-LACTS-O1-OG302
         120       14      5   0.860   -41.6311706490     0.4771920570    -0.0646175434 # P1-14-LACTS-C1-CG2O2
         121       14      9  -0.590   -41.5019782498     1.7077560335    -0.0439612032 # P1-14-LACTS-O2-OG2D1
         122       14      6   0.140   -40.4608887446    -0.6160696829     0.3222791791 # P1-14-LACTS-C2-CG311
         123       14      1   0.090   -40.5982247280    -1.5576510676    -0.3358977579 # P1-14-LACTS-H21-HGA1
         124       14      8  -0.270   -40.5596196474    -0.9929802627     1.9433205634 # P1-14-LACTS-C3-CG331
         125       14      3   0.090   -39.7244425869    -1.7198214973     2.2162480864 # P1-14-LACTS-H31-HGA3
         126       14      3   0.090   -40.4534204155    -0.0347941754     2.5550528540 # P1-14-LACTS-H32-HGA3
         127       14      3   0.090   -41.5737035043    -1.4726395863     2.1554426723 # P1-14-LACTS-H33-HGA3
         128       15     10  -0.500   -39.2147377632     0.0963215892    -0.0486296416 # P1-15-LACTR-O1-OG302
         129       15      5   0.860   -37.9607355965    -0.4985580477     0.0865353615 # P1-15-LACTR-C1-CG2O2
         130       15      9  -0.590   -37.7435494202    -1.6916297491     0.3244298878 # P1-15-LACTR-O2-OG2D1
         131       15      6   0.140   -36.8193457300     0.6854408875    -0.0842040321 # P1-15-LACTR-C2-CG311
         132       15      1   0.090   -36.8132432375     0.9948920638    -1.2002999740 # P1-15-LACTR-H21-HGA1
         133       15      8  -0.270   -37.1768089510     1.9932969594     0.8876362449 # P1-15-LACTR-C3-CG331
         134       15      3   0.090   -36.3626430570     2.7828111282     0.7708349903 # P1-15-LACTR-H31-HGA3
         135       15      3   0.090   -38.1840538370     2.4297378512     0.5714348641 # P1-15-LACTR-H32-HGA3
         136       15      3   0.090   -37.2337472005     1.6479957777     1.9736263728 # P1-15-LACTR-H33-HGA3
         137       16     10  -0.500   -35.5333543657     0.0301608738     0.2774841405 # P1-16-LACTR-O1-OG302
         138       16      5   0.860   -34.3739439409     0.3313738445    -0.4574352489 # P1-16-LACTR-C1-CG2O2
         139       16      9  -0.590   -34.2401833561     1.2853669535    -1.2315613775 # P1-16-LACTR-O2-OG2D1
         140       16      6   0.140   -33.2426481975    -0.8277627706    -0.1459205063 # P1-16-LACTR-C2-CG311
         141       16      1   0.090   -33.3064959659    -1.0694131316     0.9865634106 # P1-16-LACTR-H21-HGA1
         142       16      8  -0.270   -33.5491055527    -2.1910324109    -1.0514182106 # P1-16-LACTR-C3-CG331
         143       16      3   0.090   -32.7459288367    -2.9719708762    -0.8356675085 # P1-16-LACTR-H31-HGA3
         144       16      3   0.090   -34.5753422379    -2.6042300484    -0.7674825230 # P1-16-LACTR-H32-HGA3
         145       16      3   0.090   -33.5379324685    -1.9164125802    -2.1587548585 # P1-16-LACTR-H33-HGA3
         146       17     10  -0.500   -31.9305298697    -0.1933407576    -0.4584494314 # P1-17-LACTR-O1-OG302
         147       17      5   0.860   -30.8543513934    -0.3651031277     0.4343672892 # P1-17-LACTR-C1-CG2O2
         148       17      9  -0.590   -30.7918979485    -1.2174359806     1.3269607114 # P1-17-LACTR-O2-OG2D1
         149       17      6   0.140   -29.7133590845     0.7851006485     0.1224752379 # P1-17-LACTR-C2-CG311
         150       17      1   0.090   -29.7774931526     1.0363337853    -1.0077522859 # P1-17-LACTR-H21-HGA1
         151       17      8  -0.270   -29.9993107884     2.1450951540     1.0394814025 # P1-17-LACTR-C3-CG331
         152       17      3   0.090   -29.1889844272     2.9191498015     0.8248940765 # P1-17-LACTR-H31-HGA3
         153       17      3   0.090   -31.0223513126     2.5714643838     0.7636935467 # P1-17-LACTR-H32-HGA3
         154       17      3   0.090   -29.9850700792     1.8632830364     2.1449309294 # P1-17-LACTR-H33-HGA3
         155       18     10  -0.500   -28.4053171522     0.1341760523     0.4238728444 # P1-18-LACTR-O1-OG302
         156       18      5   0.860   -27.3197900119     0.3259475370    -0.4540385974 # P1-18-LACTR-C1-CG2O2
         157       18      9  -0.590   -27.2567224336     1.1865740581    -1.3387943726 # P1-18-LACTR-O2-OG2D1
         158       18      6   0.140   -26.1645834922    -0.8092979242    -0.1359572807 # P1-18-LACTR-C2-CG311
         159       18      1   0.090   -26.2316662987    -1.0635177450     0.9933238887 # P1-18-LACTR-H21-HGA1
         160       18      8  -0.270   -26.4259137072    -2.1715832498    -1.0574198382 # P1-18-LACTR-C3-CG331
         161       18      3   0.090   -25.6073784176    -2.9357623408    -0.8383511750 # P1-18-LACTR-H31-HGA3
         162       18      3   0.090   -27.4453811128    -2.6116598004    -0.7904658509 # P1-18-LACTR-H32-HGA3
         163       18      3   0.090   -26.4066066479    -1.8876548647    -2.1623067070 # P1-18-LACTR-H33-HGA3
         164       19     10  -0.500   -24.8622557132    -0.1419645628    -0.4277550697 # P1-19-LACTR-O1-OG302
         165       19      5   0.860   -23.7658127454    -0.3563169702     0.4313544524 # P1-19-LACTR-C1-CG2O2
         166       19      9  -0.590   -23.6968814754    -1.2319894317     1.3007818060 # P1-19-LACTR-O2-OG2D1
         167       19      6   0.140   -22.6045276075     0.7731657015     0.1132508881 # P1-19-LACTR-C2-CG311
         168       19      1   0.090   -22.6703187500     1.0272515884    -1.0161266529 # P1-19-LACTR-H21-HGA1
         169       19      8  -0.270   -22.8594994283     2.1372757809     1.0340586828 # P1-19-LACTR-C3-CG331
         170       19      3   0.090   -22.0381744446     2.8981328724     0.8136948708 # P1-19-LACTR-H31-HGA3
         171       19      3   0.090   -23.8774542512     2.5812269440     0.7679480275 # P1-19-LACTR-H32-HGA3
         172       19      3   0.090   -22.8399988343     1.8541273151     2.1391567619 # P1-19-LACTR-H33-HGA3
         173       20     10  -0.500   -21.3042692232     0.1013127285     0.4047348582 # P1-20-LACTR-O1-OG302
         174       20      5   0.860   -20.2005866500     0.3298050250    -0.4416681343 # P1-20-LACTR-C1-CG2O2
         175       20      9  -0.590   -20.1288444161     1.2130868518    -1.3031285775 # P1-20-LACTR-O2-OG2D1
         176       20      6   0.140   -19.0341372653    -0.7934351026    -0.1200813467 # P1-20-LACTR-C2-CG311
         177       20      1   0.090   -19.1025918464    -1.0483023222     1.0089510866 # P1-20-LACTR-H21-HGA1
         178       20      8  -0.270   -19.2783113745    -2.1586646513    -1.0422499302 # P1-20-LACTR-C3-CG331
         179       20      3   0.090   -18.4541538470    -2.9154819774    -0.8184683322 # P1-20-LACTR-H31-HGA3
         180       20      3   0.090   -20.2951618389    -2.6077387207    -0.7806679239 # P1-20-LACTR-H32-HGA3
         181       20      3   0.090   -19.2553164897    -1.8752594846    -2.1472209561 # P1-20-LACTR-H33-HGA3
         182       21     10  -0.500   -17.7360002828    -0.1150721059    -0.4063885739 # P1-21-LACTR-O1-OG302
         183       21      5   0.860   -16.6320819545    -0.3452069126     0.4393624792 # P1-21-LACTR-C1-CG2O2
         184       21      9  -0.590   -16.5598508890    -1.2308120594     1.2984187952 # P1-21-LACTR-O2-OG2D1
         185       21      6   0.140   -15.4655381328     0.7785412759     0.1199875071 # P1-21-LACTR-C2-CG311
         186       21      1   0.090   -15.5322126818     1.0336497994    -1.0090892323 # P1-21-LACTR-H21-HGA1
         187       21      8  -0.270   -15.7110350531     2.1435568393     1.0420850981 # P1-21-LACTR-C3-CG331
         188       21      3   0.090   -14.8865178659     2.9004022287     0.8195917805 # P1-21-LACTR-H31-HGA3
         189       21      3   0.090   -16.7274832208     2.5927082314     0.7791895354 # P1-21-LACTR-H32-HGA3
         190       21      3   0.090   -15.6894744480     1.8599356307     2.1470298945 # P1-21-LACTR-H33-HGA3
         191       22     10  -0.500   -14.1677728214     0.1002905553     0.4082820908 # P1-22-LACTR-O1-OG302
         192       22      5   0.860   -13.0632898326     0.3288957967    -0.4369827798 # P1-22-LACTR-C1-CG2O2
         193       22      9  -0.590   -12.9904743308     1.2127360994    -1.2978464764 # P1-22-LACTR-O2-OG2D1
         194       22      6   0.140   -11.8962188553    -0.7930602778    -0.1134996741 # P1-22-LACTR-C2-CG311
         195       22      1   0.090   -11.9666211460    -1.0486683617     1.0152295469 # P1-22-LACTR-H21-HGA1
         196       22      8  -0.270   -12.1345236309    -2.1582247317    -1.0370693052 # P1-22-LACTR-C3-CG331
         197       22      3   0.090   -11.3085354652    -2.9127205895    -0.8118657284 # P1-22-LACTR-H31-HGA3
         198       22      3   0.090   -13.1505697305    -2.6104394046    -0.7780814565 # P1-22-LACTR-H32-HGA3
         199       22      3   0.090   -12.1095715525    -1.8739690952    -2.1417799553 # P1-22-LACTR-H33-HGA3
         200       23     10  -0.500   -10.5993775576    -0.1114127567    -0.3970467324 # P1-23-LACTR-O1-OG302
         201       23      5   0.860    -9.5011907052    -0.3265330834     0.4594015307 # P1-23-LACTR-C1-CG2O2
         202       23      9  -0.590    -9.4300079422    -1.2033105051     1.3276607663 # P1-23-LACTR-O2-OG2D1
         203       23      6   0.140    -8.3382138626     0.7994725881     0.1360593311 # P1-23-LACTR-C2-CG311
         204       23      1   0.090    -8.4104253040     1.0561810197    -0.9923186027 # P1-23-LACTR-H21-HGA1
         205       23      8  -0.270    -8.5772561287     2.1629134308     1.0615497778 # P1-23-LACTR-C3-CG331
         206       23      3   0.090    -7.7512463788     2.9178039016     0.8373974290 # P1-23-LACTR-H31-HGA3
         207       23      3   0.090    -9.5933011843     2.6151546204     0.8029234130 # P1-23-LACTR-H32-HGA3
         208       23      3   0.090    -8.5521018630     1.8769981620     2.1658151773 # P1-23-LACTR-H33-HGA3
         209       24     10  -0.500    -7.0405054762     0.1196895611     0.4177984053 # P1-24-LACTR-O1-OG302
         210       24      5   0.860    -5.9509279191     0.3175166475    -0.4529864552 # P1-24-LACTR-C1-CG2O2
         211       24      9  -0.590    -5.8838339520     1.1822567456    -1.3336400596 # P1-24-LACTR-O2-OG2D1
         212       24      6   0.140    -4.7904692651    -0.8084436144    -0.1239024110 # P1-24-LACTR-C2-CG311
         213       24      1   0.090    -4.8683546084    -1.0642808436     1.0044674994 # P1-24-LACTR-H21-HGA1
         214       24      8  -0.270    -5.0205691820    -2.1733352396    -1.0487787019 # P1-24-LACTR-C3-CG331
         215       24      3   0.090    -4.1917615166    -2.9241269169    -0.8204254345 # P1-24-LACTR-H31-HGA3
         216       24      3   0.090    -6.0353033329    -2.6297265199    -0.7926175502 # P1-24-LACTR-H32-HGA3
         217       24      3   0.090    -4.9924782090    -1.8887689340    -2.1532215067 # P1-24-LACTR-H33-HGA3
         218       25     10  -0.500    -3.4930574614    -0.1261066353    -0.3986236340 # P1-25-LACTR-O1-OG302
         219       25      5   0.860    -2.4192822540    -0.3018863863     0.4954558935 # P1-25-LACTR-C1-CG2O2
         220       25      9  -0.590    -2.3610011623    -1.1542351280     1.3890595679 # P1-25-LACTR-O2-OG2D1
         221       25      6   0.140    -1.2617760113     0.8255003351     0.1701721462 # P1-25-LACTR-C2-CG311
         222       25      1   0.090    -1.3213392667     1.0660946574    -0.9627799966 # P1-25-LACTR-H21-HGA1
         223       25      8  -0.270    -1.4997142309     2.2025209187     1.0740882088 # P1-25-LACTR-C3-CG331
         224       25      3   0.090    -0.6679303951     2.9491096537     0.8401921548 # P1-25-LACTR-H31-HGA3
         225       25      3   0.090    -2.5119817706     2.6559644023     0.8064482248 # P1-25-LACTR-H32-HGA3
         226       25      3   0.090    -1.4753090335     1.9319815924     2.1822244726 # P1-25-LACTR-H33-HGA3
         227       26     10  -0.500     0.0302915153     0.1492572129     0.4785908101 # P1-26-LACTR-O1-OG302
         228       26      5   0.860     1.1218236576     0.3332709553    -0.3858056411 # P1-26-LACTR-C1-CG2O2
         229       26      9  -0.590     1.1768537440     1.1483476173    -1.3147723058 # P1-26-LACTR-O2-OG2D1
         230       26      6   0.140     2.3214772878    -0.7140880490     0.0353884039 # P1-26-LACTR-C2-CG311
         231       26      1   0.090     2.1876756252    -0.9984738791     1.1502429640 # P1-26-LACTR-H21-HGA1
         232       26      8  -0.270     2.2773836674    -2.0672475435    -0.9351107239 # P1-26-LACTR-C3-CG331
         233       26      3   0.090     3.1355170952    -2.7635962432    -0.6503561269 # P1-26-LACTR-H31-HGA3
         234       26      3   0.090     1.2803095066    -2.6022098576    -0.7860834410 # P1-26-LACTR-H32-HGA3
         235       26      3   0.090     2.3852432405    -1.7480983202    -2.0256519612 # P1-26-LACTR-H33-HGA3
         236       27     10  -0.500     3.5594186770     0.0901192109    -0.1385033352 # P1-27-LACTS-O1-OG302
         237       27      5   0.860     4.7696888799    -0.3382220241     0.4169703016 # P1-27-LACTS-C1-CG2O2
         238       27      9  -0.590     4.9216671819    -1.3297331188     1.1395589218 # P1-27-LACTS-O2-OG2D1
         239       27      6   0.140     5.9703111546     0.6784305897    -0.0914265058 # P1-27-LACTS-C2-CG311
         240       27      1   0.090     5.8906092957     1.6642472383     0.5057133971 # P1-27-LACTS-H21-HGA1
         241       27      8  -0.270     5.8370806409     0.9563886106    -1.7348139399 # P1-27-LACTS-C3-CG331
         242       27      3   0.090     6.6878582983     1.6328729422    -2.0783295874 # P1-27-LACTS-H31-HGA3
         243       27      3   0.090     5.8929507497    -0.0423676322    -2.2851380829 # P1-27-LACTS-H32-HGA3
         244       27      3   0.090     4.8362827623     1.4592761621    -1.9523873595 # P1-27-LACTS-H33-HGA3
         245       28     10  -0.500     7.2178213459    -0.0463815562     0.2669098429 # P1-28-LACTR-O1-OG302
         246       28      5   0.860     8.4704221078     0.4755054523    -0.0728663055 # P1-28-LACTR-C1-CG2O2
         247       28      9  -0.590     8.6975449954     1.6338645999    -0.4402671719 # P1-28-LACTR-O2-OG2D1
         248       28      6   0.140     9.5854828039    -0.7346766868     0.0601683555 # P1-28-LACTR-C2-CG311
         249       28      1   0.090     9.5999440635    -1.0593364494     1.1722396588 # P1-28-LACTR-H21-HGA1
         250       28      8  -0.270     9.1962041352    -2.0227293644    -0.9223736872 # P1-28-LACTR-C3-CG331
         251       28      3   0.090     9.9997244008    -2.8264837067    -0.8178042028 # P1-28-LACTR-H31-HGA3
         252       28      3   0.090     8.1849925477    -2.4455166766    -0.6031894217 # P1-28-LACTR-H32-HGA3
         253       28      3   0.090     9.1417927778    -1.6670148509    -2.0049628363 # P1-28-LACTR-H33-HGA3
         254       29     10  -0.500    10.8792428981    -0.0979364337    -0.3092928924 # P1-29-LACTR-O1-OG302
         255       29      5   0.860    11.9998099266    -0.3074845591     0.5114643713 # P1-29-LACTR-C1-CG2O2